      6.35138992       0.00000000      -0.00000000
      0.00000000       6.35138992       0.00000000
     -0.00000000       0.00000000       6.35138992
      2.55278475       0.00000000      -0.00000000
      0.00000000       2.55278475      -0.00000000
     -0.00000000       0.00000000       2.55278475
      7.34879226       0.00000000       0.00000000
      0.00000000       7.34879226      -0.00000000
     -0.00000000       0.00000000       7.34879226
     -5.82123327      -0.00000000       0.00000000
      0.00000000      -2.04017187       0.00000000
      0.00000000       0.00000000      -2.04017187
     -2.04017187       0.00000000       0.00000000
     -0.00000000      -5.82123327       0.00000000
     -0.00000000       0.00000000      -2.04017187
     -2.04017187      -0.00000000       0.00000000
      0.00000000      -2.04017187       0.00000000
      0.00000000      -0.00000000      -5.82123327
